LAMMPS data file via write_data, version 23 Jun 2022, timestep = 50000

7780 atoms
6 atom types
3800 bonds
1 bond types
1900 angles
1 angle types

-20.2 20.2 xlo xhi
-20.2 20.2 ylo yhi
-52.52 52.52 zlo zhi

Masses

1 15.9994
2 1.008
3 28.99
4 35.453
5 26.9815
6 26.9815

Pair Coeffs # lj/cut/tip4p/long

1 0.185199 3.1589
2 0 0
3 0.0469 2.4299
4 0.15 4.0447
5 11.697 2.574
6 11.697 2.574

Bond Coeffs # harmonic

1 0 0.9572

Angle Coeffs # harmonic

1 0 104.52

Atoms # full

1001 0 6 0 -20.2 -20.2 -25.837349959482182 0 0 0
1002 0 6 0 -18.18 -18.18 -25.837349959482182 0 0 0
1005 0 6 0 -16.16 -20.2 -25.837349959482182 0 0 0
1006 0 6 0 -14.14 -18.18 -25.837349959482182 0 0 0
1009 0 6 0 -12.120000000000001 -20.2 -25.837349959482182 0 0 0
1041 0 6 0 -20.2 -16.16 -25.837349959482182 0 0 0
1042 0 6 0 -18.18 -14.14 -25.837349959482182 0 0 0
1045 0 6 0 -16.16 -16.16 -25.837349959482182 0 0 0
1046 0 6 0 -14.14 -14.14 -25.837349959482182 0 0 0
1049 0 6 0 -12.120000000000001 -16.16 -25.837349959482182 0 0 0
1081 0 6 0 -20.2 -12.120000000000001 -25.837349959482182 0 0 0
1085 0 6 0 -16.16 -12.120000000000001 -25.837349959482182 0 0 0
1089 0 6 0 -12.120000000000001 -12.120000000000001 -25.837349959482182 0 0 0
1003 0 6 0 -18.18 -20.2 -23.81734995948215 0 0 0
1004 0 6 0 -20.2 -18.18 -23.81734995948215 0 0 0
1007 0 6 0 -14.14 -20.2 -23.81734995948215 0 0 0
1008 0 6 0 -16.16 -18.18 -23.81734995948215 0 0 0
1012 0 6 0 -12.120000000000001 -18.18 -23.81734995948215 0 0 0
1043 0 6 0 -18.18 -16.16 -23.81734995948215 0 0 0
1044 0 6 0 -20.2 -14.14 -23.81734995948215 0 0 0
1047 0 6 0 -14.14 -16.16 -23.81734995948215 0 0 0
1048 0 6 0 -16.16 -14.14 -23.81734995948215 0 0 0
1052 0 6 0 -12.120000000000001 -14.14 -23.81734995948215 0 0 0
1083 0 6 0 -18.18 -12.120000000000001 -23.81734995948215 0 0 0
1087 0 6 0 -14.14 -12.120000000000001 -23.81734995948215 0 0 0
1010 0 6 0 -10.1 -18.18 -25.837349959482182 0 0 0
1013 0 6 0 -8.08 -20.2 -25.837349959482182 0 0 0
1014 0 6 0 -6.0600000000000005 -18.18 -25.837349959482182 0 0 0
1050 0 6 0 -10.1 -14.14 -25.837349959482182 0 0 0
1053 0 6 0 -8.08 -16.16 -25.837349959482182 0 0 0
1054 0 6 0 -6.0600000000000005 -14.14 -25.837349959482182 0 0 0
1093 0 6 0 -8.08 -12.120000000000001 -25.837349959482182 0 0 0
1011 0 6 0 -10.1 -20.2 -23.81734995948215 0 0 0
1015 0 6 0 -6.0600000000000005 -20.2 -23.81734995948215 0 0 0
1016 0 6 0 -8.08 -18.18 -23.81734995948215 0 0 0
1051 0 6 0 -10.1 -16.16 -23.81734995948215 0 0 0
1055 0 6 0 -6.0600000000000005 -16.16 -23.81734995948215 0 0 0
1056 0 6 0 -8.08 -14.14 -23.81734995948215 0 0 0
1091 0 6 0 -10.1 -12.120000000000001 -23.81734995948215 0 0 0
1095 0 6 0 -6.0600000000000005 -12.120000000000001 -23.81734995948215 0 0 0
1017 0 6 0 -4.04 -20.2 -25.837349959482182 0 0 0
1018 0 6 0 -2.02 -18.18 -25.837349959482182 0 0 0
1021 0 6 0 0 -20.2 -25.837349959482182 0 0 0
1022 0 6 0 2.02 -18.18 -25.837349959482182 0 0 0
1057 0 6 0 -4.04 -16.16 -25.837349959482182 0 0 0
1058 0 6 0 -2.02 -14.14 -25.837349959482182 0 0 0
1061 0 6 0 0 -16.16 -25.837349959482182 0 0 0
1062 0 6 0 2.02 -14.14 -25.837349959482182 0 0 0
1097 0 6 0 -4.04 -12.120000000000001 -25.837349959482182 0 0 0
1101 0 6 0 0 -12.120000000000001 -25.837349959482182 0 0 0
1019 0 6 0 -2.02 -20.2 -23.81734995948215 0 0 0
1020 0 6 0 -4.04 -18.18 -23.81734995948215 0 0 0
1023 0 6 0 2.02 -20.2 -23.81734995948215 0 0 0
1024 0 6 0 0 -18.18 -23.81734995948215 0 0 0
1059 0 6 0 -2.02 -16.16 -23.81734995948215 0 0 0
1060 0 6 0 -4.04 -14.14 -23.81734995948215 0 0 0
1063 0 6 0 2.02 -16.16 -23.81734995948215 0 0 0
1064 0 6 0 0 -14.14 -23.81734995948215 0 0 0
1099 0 6 0 -2.02 -12.120000000000001 -23.81734995948215 0 0 0
1103 0 6 0 2.02 -12.120000000000001 -23.81734995948215 0 0 0
1025 0 6 0 4.04 -20.2 -25.837349959482182 0 0 0
1026 0 6 0 6.0600000000000005 -18.18 -25.837349959482182 0 0 0
1029 0 6 0 8.08 -20.2 -25.837349959482182 0 0 0
1030 0 6 0 10.1 -18.18 -25.837349959482182 0 0 0
1065 0 6 0 4.04 -16.16 -25.837349959482182 0 0 0
1066 0 6 0 6.0600000000000005 -14.14 -25.837349959482182 0 0 0
1069 0 6 0 8.08 -16.16 -25.837349959482182 0 0 0
1070 0 6 0 10.1 -14.14 -25.837349959482182 0 0 0
1105 0 6 0 4.04 -12.120000000000001 -25.837349959482182 0 0 0
1109 0 6 0 8.08 -12.120000000000001 -25.837349959482182 0 0 0
1027 0 6 0 6.0600000000000005 -20.2 -23.81734995948215 0 0 0
1028 0 6 0 4.04 -18.18 -23.81734995948215 0 0 0
1031 0 6 0 10.1 -20.2 -23.81734995948215 0 0 0
1032 0 6 0 8.08 -18.18 -23.81734995948215 0 0 0
1067 0 6 0 6.0600000000000005 -16.16 -23.81734995948215 0 0 0
1068 0 6 0 4.04 -14.14 -23.81734995948215 0 0 0
1071 0 6 0 10.1 -16.16 -23.81734995948215 0 0 0
1072 0 6 0 8.08 -14.14 -23.81734995948215 0 0 0
1107 0 6 0 6.0600000000000005 -12.120000000000001 -23.81734995948215 0 0 0
1111 0 6 0 10.1 -12.120000000000001 -23.81734995948215 0 0 0
1033 0 6 0 12.120000000000001 -20.2 -25.837349959482182 0 0 0
1034 0 6 0 14.14 -18.18 -25.837349959482182 0 0 0
1037 0 6 0 16.16 -20.2 -25.837349959482182 0 0 0
1038 0 6 0 18.18 -18.18 -25.837349959482182 0 0 0
1073 0 6 0 12.120000000000001 -16.16 -25.837349959482182 0 0 0
1074 0 6 0 14.14 -14.14 -25.837349959482182 0 0 0
1077 0 6 0 16.16 -16.16 -25.837349959482182 0 0 0
1078 0 6 0 18.18 -14.14 -25.837349959482182 0 0 0
1113 0 6 0 12.120000000000001 -12.120000000000001 -25.837349959482182 0 0 0
1117 0 6 0 16.16 -12.120000000000001 -25.837349959482182 0 0 0
1035 0 6 0 14.14 -20.2 -23.81734995948215 0 0 0
1036 0 6 0 12.120000000000001 -18.18 -23.81734995948215 0 0 0
1039 0 6 0 18.18 -20.2 -23.81734995948215 0 0 0
1040 0 6 0 16.16 -18.18 -23.81734995948215 0 0 0
1075 0 6 0 14.14 -16.16 -23.81734995948215 0 0 0
1076 0 6 0 12.120000000000001 -14.14 -23.81734995948215 0 0 0
1079 0 6 0 18.18 -16.16 -23.81734995948215 0 0 0
1080 0 6 0 16.16 -14.14 -23.81734995948215 0 0 0
1115 0 6 0 14.14 -12.120000000000001 -23.81734995948215 0 0 0
1119 0 6 0 18.18 -12.120000000000001 -23.81734995948215 0 0 0
1082 0 6 0 -18.18 -10.1 -25.837349959482182 0 0 0
1086 0 6 0 -14.14 -10.1 -25.837349959482182 0 0 0
1121 0 6 0 -20.2 -8.08 -25.837349959482182 0 0 0
1122 0 6 0 -18.18 -6.0600000000000005 -25.837349959482182 0 0 0
1125 0 6 0 -16.16 -8.08 -25.837349959482182 0 0 0
1126 0 6 0 -14.14 -6.0600000000000005 -25.837349959482182 0 0 0
1129 0 6 0 -12.120000000000001 -8.08 -25.837349959482182 0 0 0
1084 0 6 0 -20.2 -10.1 -23.81734995948215 0 0 0
1088 0 6 0 -16.16 -10.1 -23.81734995948215 0 0 0
1092 0 6 0 -12.120000000000001 -10.1 -23.81734995948215 0 0 0
1123 0 6 0 -18.18 -8.08 -23.81734995948215 0 0 0
1124 0 6 0 -20.2 -6.0600000000000005 -23.81734995948215 0 0 0
1127 0 6 0 -14.14 -8.08 -23.81734995948215 0 0 0
1128 0 6 0 -16.16 -6.0600000000000005 -23.81734995948215 0 0 0
1132 0 6 0 -12.120000000000001 -6.0600000000000005 -23.81734995948215 0 0 0
1090 0 6 0 -10.1 -10.1 -25.837349959482182 0 0 0
1094 0 6 0 -6.0600000000000005 -10.1 -25.837349959482182 0 0 0
1130 0 6 0 -10.1 -6.0600000000000005 -25.837349959482182 0 0 0
1133 0 6 0 -8.08 -8.08 -25.837349959482182 0 0 0
1134 0 6 0 -6.0600000000000005 -6.0600000000000005 -25.837349959482182 0 0 0
1096 0 6 0 -8.08 -10.1 -23.81734995948215 0 0 0
1131 0 6 0 -10.1 -8.08 -23.81734995948215 0 0 0
1135 0 6 0 -6.0600000000000005 -8.08 -23.81734995948215 0 0 0
1136 0 6 0 -8.08 -6.0600000000000005 -23.81734995948215 0 0 0
1098 0 6 0 -2.02 -10.1 -25.837349959482182 0 0 0
1102 0 6 0 2.02 -10.1 -25.837349959482182 0 0 0
1137 0 6 0 -4.04 -8.08 -25.837349959482182 0 0 0
1138 0 6 0 -2.02 -6.0600000000000005 -25.837349959482182 0 0 0
1141 0 6 0 0 -8.08 -25.837349959482182 0 0 0
1142 0 6 0 2.02 -6.0600000000000005 -25.837349959482182 0 0 0
1100 0 6 0 -4.04 -10.1 -23.81734995948215 0 0 0
1104 0 6 0 0 -10.1 -23.81734995948215 0 0 0
1139 0 6 0 -2.02 -8.08 -23.81734995948215 0 0 0
1140 0 6 0 -4.04 -6.0600000000000005 -23.81734995948215 0 0 0
1143 0 6 0 2.02 -8.08 -23.81734995948215 0 0 0
1144 0 6 0 0 -6.0600000000000005 -23.81734995948215 0 0 0
1106 0 6 0 6.0600000000000005 -10.1 -25.837349959482182 0 0 0
1110 0 6 0 10.1 -10.1 -25.837349959482182 0 0 0
1145 0 6 0 4.04 -8.08 -25.837349959482182 0 0 0
1146 0 6 0 6.0600000000000005 -6.0600000000000005 -25.837349959482182 0 0 0
1149 0 6 0 8.08 -8.08 -25.837349959482182 0 0 0
1150 0 6 0 10.1 -6.0600000000000005 -25.837349959482182 0 0 0
1108 0 6 0 4.04 -10.1 -23.81734995948215 0 0 0
1112 0 6 0 8.08 -10.1 -23.81734995948215 0 0 0
1147 0 6 0 6.0600000000000005 -8.08 -23.81734995948215 0 0 0
1148 0 6 0 4.04 -6.0600000000000005 -23.81734995948215 0 0 0
1151 0 6 0 10.1 -8.08 -23.81734995948215 0 0 0
1152 0 6 0 8.08 -6.0600000000000005 -23.81734995948215 0 0 0
1114 0 6 0 14.14 -10.1 -25.837349959482182 0 0 0
1118 0 6 0 18.18 -10.1 -25.837349959482182 0 0 0
1153 0 6 0 12.120000000000001 -8.08 -25.837349959482182 0 0 0
1154 0 6 0 14.14 -6.0600000000000005 -25.837349959482182 0 0 0
1157 0 6 0 16.16 -8.08 -25.837349959482182 0 0 0
1158 0 6 0 18.18 -6.0600000000000005 -25.837349959482182 0 0 0
1116 0 6 0 12.120000000000001 -10.1 -23.81734995948215 0 0 0
1120 0 6 0 16.16 -10.1 -23.81734995948215 0 0 0
1155 0 6 0 14.14 -8.08 -23.81734995948215 0 0 0
1156 0 6 0 12.120000000000001 -6.0600000000000005 -23.81734995948215 0 0 0
1159 0 6 0 18.18 -8.08 -23.81734995948215 0 0 0
1160 0 6 0 16.16 -6.0600000000000005 -23.81734995948215 0 0 0
1161 0 6 0 -20.2 -4.04 -25.837349959482182 0 0 0
1162 0 6 0 -18.18 -2.02 -25.837349959482182 0 0 0
1165 0 6 0 -16.16 -4.04 -25.837349959482182 0 0 0
1166 0 6 0 -14.14 -2.02 -25.837349959482182 0 0 0
1169 0 6 0 -12.120000000000001 -4.04 -25.837349959482182 0 0 0
1201 0 6 0 -20.2 0 -25.837349959482182 0 0 0
1202 0 6 0 -18.18 2.02 -25.837349959482182 0 0 0
1205 0 6 0 -16.16 0 -25.837349959482182 0 0 0
1206 0 6 0 -14.14 2.02 -25.837349959482182 0 0 0
1209 0 6 0 -12.120000000000001 0 -25.837349959482182 0 0 0
1163 0 6 0 -18.18 -4.04 -23.81734995948215 0 0 0
1164 0 6 0 -20.2 -2.02 -23.81734995948215 0 0 0
1167 0 6 0 -14.14 -4.04 -23.81734995948215 0 0 0
1168 0 6 0 -16.16 -2.02 -23.81734995948215 0 0 0
1172 0 6 0 -12.120000000000001 -2.02 -23.81734995948215 0 0 0
1203 0 6 0 -18.18 0 -23.81734995948215 0 0 0
1204 0 6 0 -20.2 2.02 -23.81734995948215 0 0 0
1207 0 6 0 -14.14 0 -23.81734995948215 0 0 0
1208 0 6 0 -16.16 2.02 -23.81734995948215 0 0 0
1212 0 6 0 -12.120000000000001 2.02 -23.81734995948215 0 0 0
1170 0 6 0 -10.1 -2.02 -25.837349959482182 0 0 0
1173 0 6 0 -8.08 -4.04 -25.837349959482182 0 0 0
1174 0 6 0 -6.0600000000000005 -2.02 -25.837349959482182 0 0 0
1210 0 6 0 -10.1 2.02 -25.837349959482182 0 0 0
1213 0 6 0 -8.08 0 -25.837349959482182 0 0 0
1214 0 6 0 -6.0600000000000005 2.02 -25.837349959482182 0 0 0
1171 0 6 0 -10.1 -4.04 -23.81734995948215 0 0 0
1175 0 6 0 -6.0600000000000005 -4.04 -23.81734995948215 0 0 0
1176 0 6 0 -8.08 -2.02 -23.81734995948215 0 0 0
1211 0 6 0 -10.1 0 -23.81734995948215 0 0 0
1215 0 6 0 -6.0600000000000005 0 -23.81734995948215 0 0 0
1216 0 6 0 -8.08 2.02 -23.81734995948215 0 0 0
1177 0 6 0 -4.04 -4.04 -25.837349959482182 0 0 0
1178 0 6 0 -2.02 -2.02 -25.837349959482182 0 0 0
1181 0 6 0 0 -4.04 -25.837349959482182 0 0 0
1182 0 6 0 2.02 -2.02 -25.837349959482182 0 0 0
1217 0 6 0 -4.04 0 -25.837349959482182 0 0 0
1218 0 6 0 -2.02 2.02 -25.837349959482182 0 0 0
1221 0 6 0 0 0 -25.837349959482182 0 0 0
1222 0 6 0 2.02 2.02 -25.837349959482182 0 0 0
1179 0 6 0 -2.02 -4.04 -23.81734995948215 0 0 0
1180 0 6 0 -4.04 -2.02 -23.81734995948215 0 0 0
1183 0 6 0 2.02 -4.04 -23.81734995948215 0 0 0
1184 0 6 0 0 -2.02 -23.81734995948215 0 0 0
1219 0 6 0 -2.02 0 -23.81734995948215 0 0 0
1220 0 6 0 -4.04 2.02 -23.81734995948215 0 0 0
1223 0 6 0 2.02 0 -23.81734995948215 0 0 0
1224 0 6 0 0 2.02 -23.81734995948215 0 0 0
1185 0 6 0 4.04 -4.04 -25.837349959482182 0 0 0
1186 0 6 0 6.0600000000000005 -2.02 -25.837349959482182 0 0 0
1189 0 6 0 8.08 -4.04 -25.837349959482182 0 0 0
1190 0 6 0 10.1 -2.02 -25.837349959482182 0 0 0
1225 0 6 0 4.04 0 -25.837349959482182 0 0 0
1226 0 6 0 6.0600000000000005 2.02 -25.837349959482182 0 0 0
1229 0 6 0 8.08 0 -25.837349959482182 0 0 0
1230 0 6 0 10.1 2.02 -25.837349959482182 0 0 0
1187 0 6 0 6.0600000000000005 -4.04 -23.81734995948215 0 0 0
1188 0 6 0 4.04 -2.02 -23.81734995948215 0 0 0
1191 0 6 0 10.1 -4.04 -23.81734995948215 0 0 0
1192 0 6 0 8.08 -2.02 -23.81734995948215 0 0 0
1227 0 6 0 6.0600000000000005 0 -23.81734995948215 0 0 0
1228 0 6 0 4.04 2.02 -23.81734995948215 0 0 0
1231 0 6 0 10.1 0 -23.81734995948215 0 0 0
1232 0 6 0 8.08 2.02 -23.81734995948215 0 0 0
1193 0 6 0 12.120000000000001 -4.04 -25.837349959482182 0 0 0
1194 0 6 0 14.14 -2.02 -25.837349959482182 0 0 0
1197 0 6 0 16.16 -4.04 -25.837349959482182 0 0 0
1198 0 6 0 18.18 -2.02 -25.837349959482182 0 0 0
1233 0 6 0 12.120000000000001 0 -25.837349959482182 0 0 0
1234 0 6 0 14.14 2.02 -25.837349959482182 0 0 0
1237 0 6 0 16.16 0 -25.837349959482182 0 0 0
1238 0 6 0 18.18 2.02 -25.837349959482182 0 0 0
1195 0 6 0 14.14 -4.04 -23.81734995948215 0 0 0
1196 0 6 0 12.120000000000001 -2.02 -23.81734995948215 0 0 0
1199 0 6 0 18.18 -4.04 -23.81734995948215 0 0 0
1200 0 6 0 16.16 -2.02 -23.81734995948215 0 0 0
1235 0 6 0 14.14 0 -23.81734995948215 0 0 0
1236 0 6 0 12.120000000000001 2.02 -23.81734995948215 0 0 0
1239 0 6 0 18.18 0 -23.81734995948215 0 0 0
1240 0 6 0 16.16 2.02 -23.81734995948215 0 0 0
1241 0 6 0 -20.2 4.04 -25.837349959482182 0 0 0
1242 0 6 0 -18.18 6.0600000000000005 -25.837349959482182 0 0 0
1245 0 6 0 -16.16 4.04 -25.837349959482182 0 0 0
1246 0 6 0 -14.14 6.0600000000000005 -25.837349959482182 0 0 0
1249 0 6 0 -12.120000000000001 4.04 -25.837349959482182 0 0 0
1281 0 6 0 -20.2 8.08 -25.837349959482182 0 0 0
1282 0 6 0 -18.18 10.1 -25.837349959482182 0 0 0
1285 0 6 0 -16.16 8.08 -25.837349959482182 0 0 0
1286 0 6 0 -14.14 10.1 -25.837349959482182 0 0 0
1289 0 6 0 -12.120000000000001 8.08 -25.837349959482182 0 0 0
1243 0 6 0 -18.18 4.04 -23.81734995948215 0 0 0
1244 0 6 0 -20.2 6.0600000000000005 -23.81734995948215 0 0 0
1247 0 6 0 -14.14 4.04 -23.81734995948215 0 0 0
1248 0 6 0 -16.16 6.0600000000000005 -23.81734995948215 0 0 0
1252 0 6 0 -12.120000000000001 6.0600000000000005 -23.81734995948215 0 0 0
1283 0 6 0 -18.18 8.08 -23.81734995948215 0 0 0
1284 0 6 0 -20.2 10.1 -23.81734995948215 0 0 0
1287 0 6 0 -14.14 8.08 -23.81734995948215 0 0 0
1288 0 6 0 -16.16 10.1 -23.81734995948215 0 0 0
1292 0 6 0 -12.120000000000001 10.1 -23.81734995948215 0 0 0
1250 0 6 0 -10.1 6.0600000000000005 -25.837349959482182 0 0 0
1253 0 6 0 -8.08 4.04 -25.837349959482182 0 0 0
1254 0 6 0 -6.0600000000000005 6.0600000000000005 -25.837349959482182 0 0 0
1290 0 6 0 -10.1 10.1 -25.837349959482182 0 0 0
1293 0 6 0 -8.08 8.08 -25.837349959482182 0 0 0
1294 0 6 0 -6.0600000000000005 10.1 -25.837349959482182 0 0 0
1251 0 6 0 -10.1 4.04 -23.81734995948215 0 0 0
1255 0 6 0 -6.0600000000000005 4.04 -23.81734995948215 0 0 0
1256 0 6 0 -8.08 6.0600000000000005 -23.81734995948215 0 0 0
1291 0 6 0 -10.1 8.08 -23.81734995948215 0 0 0
1295 0 6 0 -6.0600000000000005 8.08 -23.81734995948215 0 0 0
1296 0 6 0 -8.08 10.1 -23.81734995948215 0 0 0
1257 0 6 0 -4.04 4.04 -25.837349959482182 0 0 0
1258 0 6 0 -2.02 6.0600000000000005 -25.837349959482182 0 0 0
1261 0 6 0 0 4.04 -25.837349959482182 0 0 0
1262 0 6 0 2.02 6.0600000000000005 -25.837349959482182 0 0 0
1297 0 6 0 -4.04 8.08 -25.837349959482182 0 0 0
1298 0 6 0 -2.02 10.1 -25.837349959482182 0 0 0
1301 0 6 0 0 8.08 -25.837349959482182 0 0 0
1302 0 6 0 2.02 10.1 -25.837349959482182 0 0 0
1259 0 6 0 -2.02 4.04 -23.81734995948215 0 0 0
1260 0 6 0 -4.04 6.0600000000000005 -23.81734995948215 0 0 0
1263 0 6 0 2.02 4.04 -23.81734995948215 0 0 0
1264 0 6 0 0 6.0600000000000005 -23.81734995948215 0 0 0
1299 0 6 0 -2.02 8.08 -23.81734995948215 0 0 0
1300 0 6 0 -4.04 10.1 -23.81734995948215 0 0 0
1303 0 6 0 2.02 8.08 -23.81734995948215 0 0 0
1304 0 6 0 0 10.1 -23.81734995948215 0 0 0
1265 0 6 0 4.04 4.04 -25.837349959482182 0 0 0
1266 0 6 0 6.0600000000000005 6.0600000000000005 -25.837349959482182 0 0 0
1269 0 6 0 8.08 4.04 -25.837349959482182 0 0 0
1270 0 6 0 10.1 6.0600000000000005 -25.837349959482182 0 0 0
1305 0 6 0 4.04 8.08 -25.837349959482182 0 0 0
1306 0 6 0 6.0600000000000005 10.1 -25.837349959482182 0 0 0
1309 0 6 0 8.08 8.08 -25.837349959482182 0 0 0
1310 0 6 0 10.1 10.1 -25.837349959482182 0 0 0
1267 0 6 0 6.0600000000000005 4.04 -23.81734995948215 0 0 0
1268 0 6 0 4.04 6.0600000000000005 -23.81734995948215 0 0 0
1271 0 6 0 10.1 4.04 -23.81734995948215 0 0 0
1272 0 6 0 8.08 6.0600000000000005 -23.81734995948215 0 0 0
1307 0 6 0 6.0600000000000005 8.08 -23.81734995948215 0 0 0
1308 0 6 0 4.04 10.1 -23.81734995948215 0 0 0
1311 0 6 0 10.1 8.08 -23.81734995948215 0 0 0
1312 0 6 0 8.08 10.1 -23.81734995948215 0 0 0
1273 0 6 0 12.120000000000001 4.04 -25.837349959482182 0 0 0
1274 0 6 0 14.14 6.0600000000000005 -25.837349959482182 0 0 0
1277 0 6 0 16.16 4.04 -25.837349959482182 0 0 0
1278 0 6 0 18.18 6.0600000000000005 -25.837349959482182 0 0 0
1313 0 6 0 12.120000000000001 8.08 -25.837349959482182 0 0 0
1314 0 6 0 14.14 10.1 -25.837349959482182 0 0 0
1317 0 6 0 16.16 8.08 -25.837349959482182 0 0 0
1318 0 6 0 18.18 10.1 -25.837349959482182 0 0 0
1275 0 6 0 14.14 4.04 -23.81734995948215 0 0 0
1276 0 6 0 12.120000000000001 6.0600000000000005 -23.81734995948215 0 0 0
1279 0 6 0 18.18 4.04 -23.81734995948215 0 0 0
1280 0 6 0 16.16 6.0600000000000005 -23.81734995948215 0 0 0
1315 0 6 0 14.14 8.08 -23.81734995948215 0 0 0
1316 0 6 0 12.120000000000001 10.1 -23.81734995948215 0 0 0
1319 0 6 0 18.18 8.08 -23.81734995948215 0 0 0
1320 0 6 0 16.16 10.1 -23.81734995948215 0 0 0
1321 0 6 0 -20.2 12.120000000000001 -25.837349959482182 0 0 0
1322 0 6 0 -18.18 14.14 -25.837349959482182 0 0 0
1325 0 6 0 -16.16 12.120000000000001 -25.837349959482182 0 0 0
1326 0 6 0 -14.14 14.14 -25.837349959482182 0 0 0
1329 0 6 0 -12.120000000000001 12.120000000000001 -25.837349959482182 0 0 0
1361 0 6 0 -20.2 16.16 -25.837349959482182 0 0 0
1362 0 6 0 -18.18 18.18 -25.837349959482182 0 0 0
1365 0 6 0 -16.16 16.16 -25.837349959482182 0 0 0
1366 0 6 0 -14.14 18.18 -25.837349959482182 0 0 0
1369 0 6 0 -12.120000000000001 16.16 -25.837349959482182 0 0 0
1323 0 6 0 -18.18 12.120000000000001 -23.81734995948215 0 0 0
1324 0 6 0 -20.2 14.14 -23.81734995948215 0 0 0
1327 0 6 0 -14.14 12.120000000000001 -23.81734995948215 0 0 0
1328 0 6 0 -16.16 14.14 -23.81734995948215 0 0 0
1332 0 6 0 -12.120000000000001 14.14 -23.81734995948215 0 0 0
1363 0 6 0 -18.18 16.16 -23.81734995948215 0 0 0
1364 0 6 0 -20.2 18.18 -23.81734995948215 0 0 0
1367 0 6 0 -14.14 16.16 -23.81734995948215 0 0 0
1368 0 6 0 -16.16 18.18 -23.81734995948215 0 0 0
1372 0 6 0 -12.120000000000001 18.18 -23.81734995948215 0 0 0
1330 0 6 0 -10.1 14.14 -25.837349959482182 0 0 0
1333 0 6 0 -8.08 12.120000000000001 -25.837349959482182 0 0 0
1334 0 6 0 -6.0600000000000005 14.14 -25.837349959482182 0 0 0
1370 0 6 0 -10.1 18.18 -25.837349959482182 0 0 0
1373 0 6 0 -8.08 16.16 -25.837349959482182 0 0 0
1374 0 6 0 -6.0600000000000005 18.18 -25.837349959482182 0 0 0
1331 0 6 0 -10.1 12.120000000000001 -23.81734995948215 0 0 0
1335 0 6 0 -6.0600000000000005 12.120000000000001 -23.81734995948215 0 0 0
1336 0 6 0 -8.08 14.14 -23.81734995948215 0 0 0
1371 0 6 0 -10.1 16.16 -23.81734995948215 0 0 0
1375 0 6 0 -6.0600000000000005 16.16 -23.81734995948215 0 0 0
1376 0 6 0 -8.08 18.18 -23.81734995948215 0 0 0
1337 0 6 0 -4.04 12.120000000000001 -25.837349959482182 0 0 0
1338 0 6 0 -2.02 14.14 -25.837349959482182 0 0 0
1341 0 6 0 0 12.120000000000001 -25.837349959482182 0 0 0
1342 0 6 0 2.02 14.14 -25.837349959482182 0 0 0
1377 0 6 0 -4.04 16.16 -25.837349959482182 0 0 0
1378 0 6 0 -2.02 18.18 -25.837349959482182 0 0 0
1381 0 6 0 0 16.16 -25.837349959482182 0 0 0
1382 0 6 0 2.02 18.18 -25.837349959482182 0 0 0
1339 0 6 0 -2.02 12.120000000000001 -23.81734995948215 0 0 0
1340 0 6 0 -4.04 14.14 -23.81734995948215 0 0 0
1343 0 6 0 2.02 12.120000000000001 -23.81734995948215 0 0 0
1344 0 6 0 0 14.14 -23.81734995948215 0 0 0
1379 0 6 0 -2.02 16.16 -23.81734995948215 0 0 0
1380 0 6 0 -4.04 18.18 -23.81734995948215 0 0 0
1383 0 6 0 2.02 16.16 -23.81734995948215 0 0 0
1384 0 6 0 0 18.18 -23.81734995948215 0 0 0
1345 0 6 0 4.04 12.120000000000001 -25.837349959482182 0 0 0
1346 0 6 0 6.0600000000000005 14.14 -25.837349959482182 0 0 0
1349 0 6 0 8.08 12.120000000000001 -25.837349959482182 0 0 0
1350 0 6 0 10.1 14.14 -25.837349959482182 0 0 0
1385 0 6 0 4.04 16.16 -25.837349959482182 0 0 0
1386 0 6 0 6.0600000000000005 18.18 -25.837349959482182 0 0 0
1389 0 6 0 8.08 16.16 -25.837349959482182 0 0 0
1390 0 6 0 10.1 18.18 -25.837349959482182 0 0 0
1347 0 6 0 6.0600000000000005 12.120000000000001 -23.81734995948215 0 0 0
1348 0 6 0 4.04 14.14 -23.81734995948215 0 0 0
1351 0 6 0 10.1 12.120000000000001 -23.81734995948215 0 0 0
1352 0 6 0 8.08 14.14 -23.81734995948215 0 0 0
1387 0 6 0 6.0600000000000005 16.16 -23.81734995948215 0 0 0
1388 0 6 0 4.04 18.18 -23.81734995948215 0 0 0
1391 0 6 0 10.1 16.16 -23.81734995948215 0 0 0
1392 0 6 0 8.08 18.18 -23.81734995948215 0 0 0
1353 0 6 0 12.120000000000001 12.120000000000001 -25.837349959482182 0 0 0
1354 0 6 0 14.14 14.14 -25.837349959482182 0 0 0
1357 0 6 0 16.16 12.120000000000001 -25.837349959482182 0 0 0
1358 0 6 0 18.18 14.14 -25.837349959482182 0 0 0
1393 0 6 0 12.120000000000001 16.16 -25.837349959482182 0 0 0
1394 0 6 0 14.14 18.18 -25.837349959482182 0 0 0
1397 0 6 0 16.16 16.16 -25.837349959482182 0 0 0
1398 0 6 0 18.18 18.18 -25.837349959482182 0 0 0
1355 0 6 0 14.14 12.120000000000001 -23.81734995948215 0 0 0
1356 0 6 0 12.120000000000001 14.14 -23.81734995948215 0 0 0
1359 0 6 0 18.18 12.120000000000001 -23.81734995948215 0 0 0
1360 0 6 0 16.16 14.14 -23.81734995948215 0 0 0
1395 0 6 0 14.14 16.16 -23.81734995948215 0 0 0
1396 0 6 0 12.120000000000001 18.18 -23.81734995948215 0 0 0
1399 0 6 0 18.18 16.16 -23.81734995948215 0 0 0
1400 0 6 0 16.16 18.18 -23.81734995948215 0 0 0
1401 0 6 0 -20.2 -20.2 -21.797349959482183 0 0 0
1402 0 6 0 -18.18 -18.18 -21.797349959482183 0 0 0
1405 0 6 0 -16.16 -20.2 -21.797349959482183 0 0 0
1406 0 6 0 -14.14 -18.18 -21.797349959482183 0 0 0
1409 0 6 0 -12.120000000000001 -20.2 -21.797349959482183 0 0 0
1441 0 6 0 -20.2 -16.16 -21.797349959482183 0 0 0
1442 0 6 0 -18.18 -14.14 -21.797349959482183 0 0 0
1445 0 6 0 -16.16 -16.16 -21.797349959482183 0 0 0
1446 0 6 0 -14.14 -14.14 -21.797349959482183 0 0 0
1449 0 6 0 -12.120000000000001 -16.16 -21.797349959482183 0 0 0
1481 0 6 0 -20.2 -12.120000000000001 -21.797349959482183 0 0 0
1485 0 6 0 -16.16 -12.120000000000001 -21.797349959482183 0 0 0
1489 0 6 0 -12.120000000000001 -12.120000000000001 -21.797349959482183 0 0 0
1403 0 6 0 -18.18 -20.2 -19.777349959482102 0 0 0
1404 0 6 0 -20.2 -18.18 -19.777349959482102 0 0 0
1407 0 6 0 -14.14 -20.2 -19.777349959482102 0 0 0
1408 0 6 0 -16.16 -18.18 -19.777349959482102 0 0 0
1412 0 6 0 -12.120000000000001 -18.18 -19.777349959482102 0 0 0
1443 0 6 0 -18.18 -16.16 -19.777349959482102 0 0 0
1444 0 6 0 -20.2 -14.14 -19.777349959482102 0 0 0
1447 0 6 0 -14.14 -16.16 -19.777349959482102 0 0 0
1448 0 6 0 -16.16 -14.14 -19.777349959482102 0 0 0
1452 0 6 0 -12.120000000000001 -14.14 -19.777349959482102 0 0 0
1483 0 6 0 -18.18 -12.120000000000001 -19.777349959482102 0 0 0
1487 0 6 0 -14.14 -12.120000000000001 -19.777349959482102 0 0 0
1801 0 6 0 -20.2 -20.2 -17.75734995948222 0 0 0
1802 0 6 0 -18.18 -18.18 -17.75734995948222 0 0 0
1803 0 6 0 -16.16 -20.2 -17.75734995948222 0 0 0
1804 0 6 0 -14.14 -18.18 -17.75734995948222 0 0 0
1805 0 6 0 -12.120000000000001 -20.2 -17.75734995948222 0 0 0
1821 0 6 0 -20.2 -16.16 -17.75734995948222 0 0 0
1822 0 6 0 -18.18 -14.14 -17.75734995948222 0 0 0
1823 0 6 0 -16.16 -16.16 -17.75734995948222 0 0 0
1824 0 6 0 -14.14 -14.14 -17.75734995948222 0 0 0
1825 0 6 0 -12.120000000000001 -16.16 -17.75734995948222 0 0 0
1841 0 6 0 -20.2 -12.120000000000001 -17.75734995948222 0 0 0
1843 0 6 0 -16.16 -12.120000000000001 -17.75734995948222 0 0 0
1845 0 6 0 -12.120000000000001 -12.120000000000001 -17.75734995948222 0 0 0
2033 11 2 0.5564 -19.321585230565415 -19.024264476287204 -15.518312807441417 0 0 0
2362 121 2 0.5564 19.689200539852735 -14.741593941868935 -15.565409251081306 -1 0 0
2666 222 2 0.5564 -13.283403789405815 -12.946043392534886 -15.451806049051536 0 0 0
2035 12 2 0.5564 -16.616679882696122 -14.260484854972274 -15.931902598716944 0 0 0
2031 11 1 -1.1128 -19.922995117953885 -18.347092131957186 -15.208513463050542 0 0 0
2038 13 2 0.5564 -12.871088317428448 -17.19205161102008 -14.41466621951311 0 0 0
2063 21 2 0.5564 -18.9582348171813 -12.572806453863327 -15.376983867470294 0 0 0
2334 112 1 -1.1128 -15.904521419303626 -18.319555744611865 -14.899595407231386 0 0 0
2034 12 1 -1.1128 -16.23874031201662 -13.71034826585431 -15.245795177962366 0 0 0
2036 12 2 0.5564 -15.383852000557836 -13.451219500836778 -15.589672148834046 0 0 0
2368 123 2 0.5564 -15.275861239308178 -16.64754328967849 -15.30323028352547 0 0 0
2369 123 2 0.5564 -15.432717577945565 -15.189435251744436 -14.927444633502564 0 0 0
2367 123 1 -1.1128 -14.774987251891506 -15.875887365904182 -15.038833871469356 0 0 0
2335 112 2 0.5564 -15.259476816944115 -18.987917808435476 -15.130770794775096 0 0 0
2090 30 2 0.5564 -18.849165930319234 -15.473984410527077 -15.490328547401635 1 0 0
2361 121 1 -1.1128 -20.16490664559615 -14.010392666312026 -15.276311329761135 0 0 0
2007 3 1 -1.1128 -13.69900670299479 -20.143697799755017 -14.95733005719823 0 0 0
2009 3 2 0.5564 -13.010602509845322 -19.52011877472171 -15.188589097090668 0 0 0
2370 124 1 -1.1128 -12.340212385315471 -14.27520665681767 -15.287673758819155 0 0 0
2088 30 1 -1.1128 -18.269593809116355 -16.178602544376997 -15.200774128385307 1 0 0
2032 11 2 0.5564 -19.45194043775606 -17.52561160644523 -15.348188500933054 0 0 0
2336 112 2 0.5564 -16.75053317797552 -18.751332751564608 -15.018190127361311 0 0 0
2037 13 1 -1.1128 -12.43868832968784 -17.644279729562108 -15.139063965858293 0 0 0
2372 124 2 0.5564 -13.05047751243558 -14.914035777479317 -15.348119565931027 0 0 0
1410 0 6 0 -10.1 -18.18 -21.797349959482183 0 0 0
1413 0 6 0 -8.08 -20.2 -21.797349959482183 0 0 0
1414 0 6 0 -6.0600000000000005 -18.18 -21.797349959482183 0 0 0
1450 0 6 0 -10.1 -14.14 -21.797349959482183 0 0 0
1453 0 6 0 -8.08 -16.16 -21.797349959482183 0 0 0
1454 0 6 0 -6.0600000000000005 -14.14 -21.797349959482183 0 0 0
1493 0 6 0 -8.08 -12.120000000000001 -21.797349959482183 0 0 0
1411 0 6 0 -10.1 -20.2 -19.777349959482102 0 0 0
1415 0 6 0 -6.0600000000000005 -20.2 -19.777349959482102 0 0 0
1416 0 6 0 -8.08 -18.18 -19.777349959482102 0 0 0
1451 0 6 0 -10.1 -16.16 -19.777349959482102 0 0 0
1455 0 6 0 -6.0600000000000005 -16.16 -19.777349959482102 0 0 0
1456 0 6 0 -8.08 -14.14 -19.777349959482102 0 0 0
1491 0 6 0 -10.1 -12.120000000000001 -19.777349959482102 0 0 0
1495 0 6 0 -6.0600000000000005 -12.120000000000001 -19.777349959482102 0 0 0
1806 0 6 0 -10.1 -18.18 -17.75734995948222 0 0 0
1807 0 6 0 -8.08 -20.2 -17.75734995948222 0 0 0
1808 0 6 0 -6.0600000000000005 -18.18 -17.75734995948222 0 0 0
1826 0 6 0 -10.1 -14.14 -17.75734995948222 0 0 0
1827 0 6 0 -8.08 -16.16 -17.75734995948222 0 0 0
1828 0 6 0 -6.0600000000000005 -14.14 -17.75734995948222 0 0 0
1847 0 6 0 -8.08 -12.120000000000001 -17.75734995948222 0 0 0
2345 115 2 0.5564 -9.653602488553863 -16.651834177851505 -15.51332525920677 0 0 0
2308 103 2 0.5564 -9.54058358204184 -19.445989875567246 -15.805503834829297 0 0 0
2643 215 1 -1.1128 -6.16662834849851 -16.30367621545365 -15.190713165322208 0 0 0
2339 113 2 0.5564 -7.296239664817343 -17.60415911324966 -15.406134283227127 0 0 0
2584 195 2 0.5564 -6.941269022193754 -19.53573614442955 -15.603276685252837 0 1 0
2371 124 2 0.5564 -11.541321168851889 -14.796134512217888 -15.36915645177138 0 0 0
2039 13 2 0.5564 -11.612838280615886 -17.174757064346952 -15.25633308797186 0 0 0
2343 115 1 -1.1128 -10.104613522642854 -15.816567317698713 -15.390239279410558 0 0 0
2041 14 2 0.5564 -9.247362953456516 -12.81298637602951 -15.471393203806763 0 0 0
2346 116 1 -1.1128 -8.01139300138372 -14.078723234025764 -15.46899817805505 0 0 0
2344 115 2 0.5564 -9.471446565943973 -15.157672710090916 -15.67517674982251 0 0 0
2307 103 1 -1.1128 -9.931138545807125 -20.135987034863973 -15.269217667775587 0 0 0
2309 103 2 0.5564 -9.219348809239014 19.640564250243866 -15.12464848370364 0 -1 0
2340 114 1 -1.1128 -4.257549896600447 -18.215690506126265 -15.018891172134257 0 0 0
2644 215 2 0.5564 -5.518890881281574 -17.008368927555214 -15.199444848652398 0 0 0
2348 116 2 0.5564 -7.588092830356254 -14.937073879230283 -15.485820365939377 0 0 0
2044 15 2 0.5564 -3.7783359402312082 -14.94933451874029 -15.643653734856743 0 0 0
2043 15 1 -1.1128 -4.115046591537041 -14.107897968221002 -15.335687946698833 0 0 0
2045 15 2 0.5564 -4.125636195172972 -14.188210704277658 -14.381921451578316 0 0 0
2342 114 2 0.5564 -3.564420449261032 -17.6745438013737 -15.396997388579889 0 0 0
1417 0 6 0 -4.04 -20.2 -21.797349959482183 0 0 0
1418 0 6 0 -2.02 -18.18 -21.797349959482183 0 0 0
1421 0 6 0 0 -20.2 -21.797349959482183 0 0 0
1422 0 6 0 2.02 -18.18 -21.797349959482183 0 0 0
1457 0 6 0 -4.04 -16.16 -21.797349959482183 0 0 0
1458 0 6 0 -2.02 -14.14 -21.797349959482183 0 0 0
1461 0 6 0 0 -16.16 -21.797349959482183 0 0 0
1462 0 6 0 2.02 -14.14 -21.797349959482183 0 0 0
1497 0 6 0 -4.04 -12.120000000000001 -21.797349959482183 0 0 0
1501 0 6 0 0 -12.120000000000001 -21.797349959482183 0 0 0
1419 0 6 0 -2.02 -20.2 -19.777349959482102 0 0 0
1420 0 6 0 -4.04 -18.18 -19.777349959482102 0 0 0