ITEM: TIMESTEP
0
ITEM: NUMBER OF ATOMS
7700
ITEM: BOX BOUNDS pp pp pp
-2.0199999999999999e+01 2.0199999999999999e+01
-2.0199999999999999e+01 2.0199999999999999e+01
-5.2520000000000003e+01 5.2520000000000003e+01
ITEM: ATOMS id type xs ys zs
1001 6 0 0 0.0384615
1002 6 0.05 0.05 0.0384615
1003 6 0.05 0 0.0576923
1004 6 0 0.05 0.0576923
1005 6 0.1 0 0.0384615
1006 6 0.15 0.05 0.0384615
1007 6 0.15 0 0.0576923
1008 6 0.1 0.05 0.0576923
1009 6 0.2 0 0.0384615
1012 6 0.2 0.05 0.0576923
1041 6 0 0.1 0.0384615
1042 6 0.05 0.15 0.0384615
1043 6 0.05 0.1 0.0576923
1044 6 0 0.15 0.0576923
1045 6 0.1 0.1 0.0384615
1046 6 0.15 0.15 0.0384615
1047 6 0.15 0.1 0.0576923
1048 6 0.1 0.15 0.0576923
1049 6 0.2 0.1 0.0384615
1052 6 0.2 0.15 0.0576923
1081 6 0 0.2 0.0384615
1083 6 0.05 0.2 0.0576923
1085 6 0.1 0.2 0.0384615
1087 6 0.15 0.2 0.0576923
1089 6 0.2 0.2 0.0384615
1010 6 0.25 0.05 0.0384615
1011 6 0.25 0 0.0576923
1013 6 0.3 0 0.0384615
1014 6 0.35 0.05 0.0384615
1015 6 0.35 0 0.0576923
1016 6 0.3 0.05 0.0576923
1050 6 0.25 0.15 0.0384615
1051 6 0.25 0.1 0.0576923
1053 6 0.3 0.1 0.0384615
1054 6 0.35 0.15 0.0384615
1055 6 0.35 0.1 0.0576923
1056 6 0.3 0.15 0.0576923
1091 6 0.25 0.2 0.0576923
1093 6 0.3 0.2 0.0384615
1095 6 0.35 0.2 0.0576923
1017 6 0.4 0 0.0384615
1018 6 0.45 0.05 0.0384615
1019 6 0.45 0 0.0576923
1020 6 0.4 0.05 0.0576923
1021 6 0.5 0 0.0384615
1022 6 0.55 0.05 0.0384615
1023 6 0.55 0 0.0576923
1024 6 0.5 0.05 0.0576923
1057 6 0.4 0.1 0.0384615
1058 6 0.45 0.15 0.0384615
1059 6 0.45 0.1 0.0576923
1060 6 0.4 0.15 0.0576923
1061 6 0.5 0.1 0.0384615
1062 6 0.55 0.15 0.0384615
1063 6 0.55 0.1 0.0576923
1064 6 0.5 0.15 0.0576923
1097 6 0.4 0.2 0.0384615
1099 6 0.45 0.2 0.0576923
1101 6 0.5 0.2 0.0384615
1103 6 0.55 0.2 0.0576923
1025 6 0.6 0 0.0384615
1026 6 0.65 0.05 0.0384615
1027 6 0.65 0 0.0576923
1028 6 0.6 0.05 0.0576923
1029 6 0.7 0 0.0384615
1030 6 0.75 0.05 0.0384615
1031 6 0.75 0 0.0576923
1032 6 0.7 0.05 0.0576923
1065 6 0.6 0.1 0.0384615
1066 6 0.65 0.15 0.0384615
1067 6 0.65 0.1 0.0576923
1068 6 0.6 0.15 0.0576923
1069 6 0.7 0.1 0.0384615
1070 6 0.75 0.15 0.0384615
1071 6 0.75 0.1 0.0576923
1072 6 0.7 0.15 0.0576923
1105 6 0.6 0.2 0.0384615
1107 6 0.65 0.2 0.0576923
1109 6 0.7 0.2 0.0384615
1111 6 0.75 0.2 0.0576923
1033 6 0.8 0 0.0384615
1034 6 0.85 0.05 0.0384615
1035 6 0.85 0 0.0576923
1036 6 0.8 0.05 0.0576923
1037 6 0.9 0 0.0384615
1038 6 0.95 0.05 0.0384615
1039 6 0.95 0 0.0576923
1040 6 0.9 0.05 0.0576923
1073 6 0.8 0.1 0.0384615
1074 6 0.85 0.15 0.0384615
1075 6 0.85 0.1 0.0576923
1076 6 0.8 0.15 0.0576923
1077 6 0.9 0.1 0.0384615
1078 6 0.95 0.15 0.0384615
1079 6 0.95 0.1 0.0576923
1080 6 0.9 0.15 0.0576923
1113 6 0.8 0.2 0.0384615
1115 6 0.85 0.2 0.0576923
1117 6 0.9 0.2 0.0384615
1119 6 0.95 0.2 0.0576923
1082 6 0.05 0.25 0.0384615
1084 6 0 0.25 0.0576923
1086 6 0.15 0.25 0.0384615
1088 6 0.1 0.25 0.0576923
1092 6 0.2 0.25 0.0576923
1121 6 0 0.3 0.0384615
1122 6 0.05 0.35 0.0384615
1123 6 0.05 0.3 0.0576923
1124 6 0 0.35 0.0576923
1125 6 0.1 0.3 0.0384615
1126 6 0.15 0.35 0.0384615
1127 6 0.15 0.3 0.0576923
1128 6 0.1 0.35 0.0576923
1129 6 0.2 0.3 0.0384615
1132 6 0.2 0.35 0.0576923
1090 6 0.25 0.25 0.0384615
1094 6 0.35 0.25 0.0384615
1096 6 0.3 0.25 0.0576923
1130 6 0.25 0.35 0.0384615
1131 6 0.25 0.3 0.0576923
1133 6 0.3 0.3 0.0384615
1134 6 0.35 0.35 0.0384615
1135 6 0.35 0.3 0.0576923
1136 6 0.3 0.35 0.0576923
1098 6 0.45 0.25 0.0384615
1100 6 0.4 0.25 0.0576923
1102 6 0.55 0.25 0.0384615
1104 6 0.5 0.25 0.0576923
1137 6 0.4 0.3 0.0384615
1138 6 0.45 0.35 0.0384615
1139 6 0.45 0.3 0.0576923
1140 6 0.4 0.35 0.0576923
1141 6 0.5 0.3 0.0384615
1142 6 0.55 0.35 0.0384615
1143 6 0.55 0.3 0.0576923
1144 6 0.5 0.35 0.0576923
1106 6 0.65 0.25 0.0384615
1108 6 0.6 0.25 0.0576923
1110 6 0.75 0.25 0.0384615
1112 6 0.7 0.25 0.0576923
1145 6 0.6 0.3 0.0384615
1146 6 0.65 0.35 0.0384615
1147 6 0.65 0.3 0.0576923
1148 6 0.6 0.35 0.0576923
1149 6 0.7 0.3 0.0384615
1150 6 0.75 0.35 0.0384615
1151 6 0.75 0.3 0.0576923
1152 6 0.7 0.35 0.0576923
1114 6 0.85 0.25 0.0384615
1116 6 0.8 0.25 0.0576923
1118 6 0.95 0.25 0.0384615
1120 6 0.9 0.25 0.0576923
1153 6 0.8 0.3 0.0384615
1154 6 0.85 0.35 0.0384615
1155 6 0.85 0.3 0.0576923
1156 6 0.8 0.35 0.0576923
1157 6 0.9 0.3 0.0384615
1158 6 0.95 0.35 0.0384615
1159 6 0.95 0.3 0.0576923
1160 6 0.9 0.35 0.0576923
1161 6 0 0.4 0.0384615
1162 6 0.05 0.45 0.0384615
1163 6 0.05 0.4 0.0576923
1164 6 0 0.45 0.0576923
1165 6 0.1 0.4 0.0384615
1166 6 0.15 0.45 0.0384615
1167 6 0.15 0.4 0.0576923
1168 6 0.1 0.45 0.0576923
1169 6 0.2 0.4 0.0384615
1172 6 0.2 0.45 0.0576923
1201 6 0 0.5 0.0384615
1202 6 0.05 0.55 0.0384615
1203 6 0.05 0.5 0.0576923
1204 6 0 0.55 0.0576923
1205 6 0.1 0.5 0.0384615
1206 6 0.15 0.55 0.0384615
1207 6 0.15 0.5 0.0576923
1208 6 0.1 0.55 0.0576923
1209 6 0.2 0.5 0.0384615
1212 6 0.2 0.55 0.0576923
1170 6 0.25 0.45 0.0384615
1171 6 0.25 0.4 0.0576923
1173 6 0.3 0.4 0.0384615
1174 6 0.35 0.45 0.0384615
1175 6 0.35 0.4 0.0576923
1176 6 0.3 0.45 0.0576923
1210 6 0.25 0.55 0.0384615
1211 6 0.25 0.5 0.0576923
1213 6 0.3 0.5 0.0384615
1214 6 0.35 0.55 0.0384615
1215 6 0.35 0.5 0.0576923
1216 6 0.3 0.55 0.0576923
1177 6 0.4 0.4 0.0384615
1178 6 0.45 0.45 0.0384615
1179 6 0.45 0.4 0.0576923
1180 6 0.4 0.45 0.0576923
1181 6 0.5 0.4 0.0384615
1182 6 0.55 0.45 0.0384615
1183 6 0.55 0.4 0.0576923
1184 6 0.5 0.45 0.0576923
1217 6 0.4 0.5 0.0384615
1218 6 0.45 0.55 0.0384615
1219 6 0.45 0.5 0.0576923
1220 6 0.4 0.55 0.0576923
1221 6 0.5 0.5 0.0384615
1222 6 0.55 0.55 0.0384615
1223 6 0.55 0.5 0.0576923
1224 6 0.5 0.55 0.0576923
1185 6 0.6 0.4 0.0384615
1186 6 0.65 0.45 0.0384615
1187 6 0.65 0.4 0.0576923
1188 6 0.6 0.45 0.0576923
1189 6 0.7 0.4 0.0384615
1190 6 0.75 0.45 0.0384615
1191 6 0.75 0.4 0.0576923
1192 6 0.7 0.45 0.0576923
1225 6 0.6 0.5 0.0384615
1226 6 0.65 0.55 0.0384615
1227 6 0.65 0.5 0.0576923
1228 6 0.6 0.55 0.0576923
1229 6 0.7 0.5 0.0384615
1230 6 0.75 0.55 0.0384615
1231 6 0.75 0.5 0.0576923
1232 6 0.7 0.55 0.0576923
1193 6 0.8 0.4 0.0384615
1194 6 0.85 0.45 0.0384615
1195 6 0.85 0.4 0.0576923
1196 6 0.8 0.45 0.0576923
1197 6 0.9 0.4 0.0384615
1198 6 0.95 0.45 0.0384615
1199 6 0.95 0.4 0.0576923
1200 6 0.9 0.45 0.0576923
1233 6 0.8 0.5 0.0384615
1234 6 0.85 0.55 0.0384615
1235 6 0.85 0.5 0.0576923
1236 6 0.8 0.55 0.0576923
1237 6 0.9 0.5 0.0384615
1238 6 0.95 0.55 0.0384615
1239 6 0.95 0.5 0.0576923
1240 6 0.9 0.55 0.0576923
1241 6 0 0.6 0.0384615
1242 6 0.05 0.65 0.0384615
1243 6 0.05 0.6 0.0576923
1244 6 0 0.65 0.0576923
1245 6 0.1 0.6 0.0384615
1246 6 0.15 0.65 0.0384615
1247 6 0.15 0.6 0.0576923
1248 6 0.1 0.65 0.0576923
1249 6 0.2 0.6 0.0384615
1252 6 0.2 0.65 0.0576923
1281 6 0 0.7 0.0384615
1282 6 0.05 0.75 0.0384615
1283 6 0.05 0.7 0.0576923
1284 6 0 0.75 0.0576923
1285 6 0.1 0.7 0.0384615
1286 6 0.15 0.75 0.0384615
1287 6 0.15 0.7 0.0576923
1288 6 0.1 0.75 0.0576923
1289 6 0.2 0.7 0.0384615
1292 6 0.2 0.75 0.0576923
1250 6 0.25 0.65 0.0384615
1251 6 0.25 0.6 0.0576923
1253 6 0.3 0.6 0.0384615
1254 6 0.35 0.65 0.0384615
1255 6 0.35 0.6 0.0576923
1256 6 0.3 0.65 0.0576923
1290 6 0.25 0.75 0.0384615
1291 6 0.25 0.7 0.0576923
1293 6 0.3 0.7 0.0384615
1294 6 0.35 0.75 0.0384615
1295 6 0.35 0.7 0.0576923
1296 6 0.3 0.75 0.0576923
1257 6 0.4 0.6 0.0384615
1258 6 0.45 0.65 0.0384615
1259 6 0.45 0.6 0.0576923
1260 6 0.4 0.65 0.0576923
1261 6 0.5 0.6 0.0384615
1262 6 0.55 0.65 0.0384615
1263 6 0.55 0.6 0.0576923
1264 6 0.5 0.65 0.0576923
1297 6 0.4 0.7 0.0384615
1298 6 0.45 0.75 0.0384615
1299 6 0.45 0.7 0.0576923
1300 6 0.4 0.75 0.0576923
1301 6 0.5 0.7 0.0384615
1302 6 0.55 0.75 0.0384615
1303 6 0.55 0.7 0.0576923
1304 6 0.5 0.75 0.0576923
1265 6 0.6 0.6 0.0384615
1266 6 0.65 0.65 0.0384615
1267 6 0.65 0.6 0.0576923
1268 6 0.6 0.65 0.0576923
1269 6 0.7 0.6 0.0384615
1270 6 0.75 0.65 0.0384615
1271 6 0.75 0.6 0.0576923
1272 6 0.7 0.65 0.0576923
1305 6 0.6 0.7 0.0384615
1306 6 0.65 0.75 0.0384615
1307 6 0.65 0.7 0.0576923
1308 6 0.6 0.75 0.0576923
1309 6 0.7 0.7 0.0384615
1310 6 0.75 0.75 0.0384615
1311 6 0.75 0.7 0.0576923
1312 6 0.7 0.75 0.0576923
1273 6 0.8 0.6 0.0384615
1274 6 0.85 0.65 0.0384615
1275 6 0.85 0.6 0.0576923
1276 6 0.8 0.65 0.0576923
1277 6 0.9 0.6 0.0384615
1278 6 0.95 0.65 0.0384615
1279 6 0.95 0.6 0.0576923
1280 6 0.9 0.65 0.0576923
1313 6 0.8 0.7 0.0384615
1314 6 0.85 0.75 0.0384615
1315 6 0.85 0.7 0.0576923
1316 6 0.8 0.75 0.0576923
1317 6 0.9 0.7 0.0384615
1318 6 0.95 0.75 0.0384615
1319 6 0.95 0.7 0.0576923
1320 6 0.9 0.75 0.0576923
1321 6 0 0.8 0.0384615
1322 6 0.05 0.85 0.0384615
1323 6 0.05 0.8 0.0576923
1324 6 0 0.85 0.0576923
1325 6 0.1 0.8 0.0384615
1326 6 0.15 0.85 0.0384615
1327 6 0.15 0.8 0.0576923
1328 6 0.1 0.85 0.0576923
1329 6 0.2 0.8 0.0384615
1332 6 0.2 0.85 0.0576923
1361 6 0 0.9 0.0384615
1362 6 0.05 0.95 0.0384615
1363 6 0.05 0.9 0.0576923
1364 6 0 0.95 0.0576923
1365 6 0.1 0.9 0.0384615
1366 6 0.15 0.95 0.0384615
1367 6 0.15 0.9 0.0576923
1368 6 0.1 0.95 0.0576923
1369 6 0.2 0.9 0.0384615
1372 6 0.2 0.95 0.0576923
1330 6 0.25 0.85 0.0384615
1331 6 0.25 0.8 0.0576923
1333 6 0.3 0.8 0.0384615
1334 6 0.35 0.85 0.0384615
1335 6 0.35 0.8 0.0576923
1336 6 0.3 0.85 0.0576923
1370 6 0.25 0.95 0.0384615
1371 6 0.25 0.9 0.0576923
1373 6 0.3 0.9 0.0384615
1374 6 0.35 0.95 0.0384615
1375 6 0.35 0.9 0.0576923
1376 6 0.3 0.95 0.0576923
1337 6 0.4 0.8 0.0384615
1338 6 0.45 0.85 0.0384615
1339 6 0.45 0.8 0.0576923
1340 6 0.4 0.85 0.0576923
1341 6 0.5 0.8 0.0384615
1342 6 0.55 0.85 0.0384615
1343 6 0.55 0.8 0.0576923
1344 6 0.5 0.85 0.0576923
1377 6 0.4 0.9 0.0384615
1378 6 0.45 0.95 0.0384615
1379 6 0.45 0.9 0.0576923
1380 6 0.4 0.95 0.0576923
1381 6 0.5 0.9 0.0384615
1382 6 0.55 0.95 0.0384615
1383 6 0.55 0.9 0.0576923
1384 6 0.5 0.95 0.0576923
1345 6 0.6 0.8 0.0384615
1346 6 0.65 0.85 0.0384615
1347 6 0.65 0.8 0.0576923
1348 6 0.6 0.85 0.0576923
1349 6 0.7 0.8 0.0384615
1350 6 0.75 0.85 0.0384615
1351 6 0.75 0.8 0.0576923
1352 6 0.7 0.85 0.0576923
1385 6 0.6 0.9 0.0384615
1386 6 0.65 0.95 0.0384615
1387 6 0.65 0.9 0.0576923
1388 6 0.6 0.95 0.0576923
1389 6 0.7 0.9 0.0384615
1390 6 0.75 0.95 0.0384615
1391 6 0.75 0.9 0.0576923
1392 6 0.7 0.95 0.0576923
1353 6 0.8 0.8 0.0384615
1354 6 0.85 0.85 0.0384615
1355 6 0.85 0.8 0.0576923
1356 6 0.8 0.85 0.0576923
1357 6 0.9 0.8 0.0384615
1358 6 0.95 0.85 0.0384615
1359 6 0.95 0.8 0.0576923
1360 6 0.9 0.85 0.0576923
1393 6 0.8 0.9 0.0384615
1394 6 0.85 0.95 0.0384615
1395 6 0.85 0.9 0.0576923
1396 6 0.8 0.95 0.0576923
1397 6 0.9 0.9 0.0384615
1398 6 0.95 0.95 0.0384615
1399 6 0.95 0.9 0.0576923
1400 6 0.9 0.95 0.0576923
1401 6 0 0 0.0769231
1402 6 0.05 0.05 0.0769231
1403 6 0.05 0 0.0961538
1404 6 0 0.05 0.0961538
1405 6 0.1 0 0.0769231
1406 6 0.15 0.05 0.0769231
1407 6 0.15 0 0.0961538
1408 6 0.1 0.05 0.0961538
1409 6 0.2 0 0.0769231
1412 6 0.2 0.05 0.0961538
1441 6 0 0.1 0.0769231
1442 6 0.05 0.15 0.0769231
1443 6 0.05 0.1 0.0961538
1444 6 0 0.15 0.0961538
1445 6 0.1 0.1 0.0769231
1446 6 0.15 0.15 0.0769231
1447 6 0.15 0.1 0.0961538
1448 6 0.1 0.15 0.0961538
1449 6 0.2 0.1 0.0769231
1452 6 0.2 0.15 0.0961538
1481 6 0 0.2 0.0769231
1483 6 0.05 0.2 0.0961538
1485 6 0.1 0.2 0.0769231
1487 6 0.15 0.2 0.0961538
1489 6 0.2 0.2 0.0769231
1801 6 0 0 0.115385
1802 6 0.05 0.05 0.115385
1803 6 0.1 0 0.115385
1804 6 0.15 0.05 0.115385
1805 6 0.2 0 0.115385
1821 6 0 0.1 0.115385
1822 6 0.05 0.15 0.115385
1823 6 0.1 0.1 0.115385
1824 6 0.15 0.15 0.115385
1825 6 0.2 0.1 0.115385
1841 6 0 0.2 0.115385
1843 6 0.1 0.2 0.115385
1845 6 0.2 0.2 0.115385
1410 6 0.25 0.05 0.0769231
1411 6 0.25 0 0.0961538
1413 6 0.3 0 0.0769231
1414 6 0.35 0.05 0.0769231
1415 6 0.35 0 0.0961538
1416 6 0.3 0.05 0.0961538
1450 6 0.25 0.15 0.0769231
1451 6 0.25 0.1 0.0961538
1453 6 0.3 0.1 0.0769231
1454 6 0.35 0.15 0.0769231
1455 6 0.35 0.1 0.0961538
1456 6 0.3 0.15 0.0961538
1491 6 0.25 0.2 0.0961538
1493 6 0.3 0.2 0.0769231
1495 6 0.35 0.2 0.0961538
1806 6 0.25 0.05 0.115385
1807 6 0.3 0 0.115385
1808 6 0.35 0.05 0.115385
1826 6 0.25 0.15 0.115385
1827 6 0.3 0.1 0.115385
1828 6 0.35 0.15 0.115385
1847 6 0.3 0.2 0.115385
1417 6 0.4 0 0.0769231
1418 6 0.45 0.05 0.0769231
1419 6 0.45 0 0.0961538
1420 6 0.4 0.05 0.0961538
1421 6 0.5 0 0.0769231
1422 6 0.55 0.05 0.0769231
1423 6 0.55 0 0.0961538
1424 6 0.5 0.05 0.0961538
1457 6 0.4 0.1 0.0769231
1458 6 0.45 0.15 0.0769231
1459 6 0.45 0.1 0.0961538
1460 6 0.4 0.15 0.0961538
1461 6 0.5 0.1 0.0769231
1462 6 0.55 0.15 0.0769231
1463 6 0.55 0.1 0.0961538
1464 6 0.5 0.15 0.0961538
1497 6 0.4 0.2 0.0769231
1499 6 0.45 0.2 0.0961538
1501 6 0.5 0.2 0.0769231
1503 6 0.55 0.2 0.0961538
1809 6 0.4 0 0.115385
1810 6 0.45 0.05 0.115385
1811 6 0.5 0 0.115385
1812 6 0.55 0.05 0.115385
1829 6 0.4 0.1 0.115385
1830 6 0.45 0.15 0.115385
1831 6 0.5 0.1 0.115385
1832 6 0.55 0.15 0.115385
1849 6 0.4 0.2 0.115385
1851 6 0.5 0.2 0.115385
1425 6 0.6 0 0.0769231
1426 6 0.65 0.05 0.0769231
1427 6 0.65 0 0.0961538
1428 6 0.6 0.05 0.0961538
1429 6 0.7 0 0.0769231
1430 6 0.75 0.05 0.0769231
1431 6 0.75 0 0.0961538
1432 6 0.7 0.05 0.0961538
1465 6 0.6 0.1 0.0769231
1466 6 0.65 0.15 0.0769231
1467 6 0.65 0.1 0.0961538
1468 6 0.6 0.15 0.0961538
1469 6 0.7 0.1 0.0769231
1470 6 0.75 0.15 0.0769231
1471 6 0.75 0.1 0.0961538
1472 6 0.7 0.15 0.0961538
1505 6 0.6 0.2 0.0769231
1507 6 0.65 0.2 0.0961538
1509 6 0.7 0.2 0.0769231
1511 6 0.75 0.2 0.0961538
1813 6 0.6 0 0.115385
1814 6 0.65 0.05 0.115385
1815 6 0.7 0 0.115385
1816 6 0.75 0.05 0.115385
1833 6 0.6 0.1 0.115385
1834 6 0.65 0.15 0.115385
1835 6 0.7 0.1 0.115385
1836 6 0.75 0.15 0.115385
1853 6 0.6 0.2 0.115385
1855 6 0.7 0.2 0.115385
1433 6 0.8 0 0.0769231
1434 6 0.85 0.05 0.0769231
1435 6 0.85 0 0.0961538
1436 6 0.8 0.05 0.0961538
1437 6 0.9 0 0.0769231
1438 6 0.95 0.05 0.0769231
1439 6 0.95 0 0.0961538
1440 6 0.9 0.05 0.0961538
1473 6 0.8 0.1 0.0769231
1474 6 0.85 0.15 0.0769231
1475 6 0.85 0.1 0.0961538
1476 6 0.8 0.15 0.0961538
1477 6 0.9 0.1 0.0769231
1478 6 0.95 0.15 0.0769231
1479 6 0.95 0.1 0.0961538
1480 6 0.9 0.15 0.0961538
1513 6 0.8 0.2 0.0769231
1515 6 0.85 0.2 0.0961538
1517 6 0.9 0.2 0.0769231
1519 6 0.95 0.2 0.0961538
1817 6 0.8 0 0.115385
1818 6 0.85 0.05 0.115385
1819 6 0.9 0 0.115385
1820 6 0.95 0.05 0.115385
1837 6 0.8 0.1 0.115385
1838 6 0.85 0.15 0.115385
1839 6 0.9 0.1 0.115385
1840 6 0.95 0.15 0.115385
1857 6 0.8 0.2 0.115385
1859 6 0.9 0.2 0.115385
1482 6 0.05 0.25 0.0769231
1484 6 0 0.25 0.0961538
1486 6 0.15 0.25 0.0769231
1488 6 0.1 0.25 0.0961538
1492 6 0.2 0.25 0.0961538
1521 6 0 0.3 0.0769231
1522 6 0.05 0.35 0.0769231
1523 6 0.05 0.3 0.0961538
1524 6 0 0.35 0.0961538
1525 6 0.1 0.3 0.0769231
1526 6 0.15 0.35 0.0769231
1527 6 0.15 0.3 0.0961538
1528 6 0.1 0.35 0.0961538
1529 6 0.2 0.3 0.0769231
1532 6 0.2 0.35 0.0961538
1842 6 0.05 0.25 0.115385
1844 6 0.15 0.25 0.115385
1861 6 0 0.3 0.115385
1862 6 0.05 0.35 0.115385
1863 6 0.1 0.3 0.115385
1864 6 0.15 0.35 0.115385
1865 6 0.2 0.3 0.115385
1490 6 0.25 0.25 0.0769231
1494 6 0.35 0.25 0.0769231
1496 6 0.3 0.25 0.0961538
1530 6 0.25 0.35 0.0769231
1531 6 0.25 0.3 0.0961538
1533 6 0.3 0.3 0.0769231
1534 6 0.35 0.35 0.0769231
1535 6 0.35 0.3 0.0961538
1536 6 0.3 0.35 0.0961538
1846 6 0.25 0.25 0.115385
1848 6 0.35 0.25 0.115385
1866 6 0.25 0.35 0.115385
1867 6 0.3 0.3 0.115385
1868 6 0.35 0.35 0.115385
1498 6 0.45 0.25 0.0769231
1500 6 0.4 0.25 0.0961538
1502 6 0.55 0.25 0.0769231
1504 6 0.5 0.25 0.0961538
1537 6 0.4 0.3 0.0769231
1538 6 0.45 0.35 0.0769231
1539 6 0.45 0.3 0.0961538
1540 6 0.4 0.35 0.0961538
1541 6 0.5 0.3 0.0769231
1542 6 0.55 0.35 0.0769231
1543 6 0.55 0.3 0.0961538
1544 6 0.5 0.35 0.0961538
1850 6 0.45 0.25 0.115385
1852 6 0.55 0.25 0.115385
1869 6 0.4 0.3 0.115385
1870 6 0.45 0.35 0.115385
1871 6 0.5 0.3 0.115385
1872 6 0.55 0.35 0.115385
1506 6 0.65 0.25 0.0769231
1508 6 0.6 0.25 0.0961538
1510 6 0.75 0.25 0.0769231
1512 6 0.7 0.25 0.0961538
1545 6 0.6 0.3 0.0769231
1546 6 0.65 0.35 0.0769231
1547 6 0.65 0.3 0.0961538
1548 6 0.6 0.35 0.0961538
1549 6 0.7 0.3 0.0769231
1550 6 0.75 0.35 0.0769231
1551 6 0.75 0.3 0.0961538
1552 6 0.7 0.35 0.0961538
1854 6 0.65 0.25 0.115385
1856 6 0.75 0.25 0.115385
1873 6 0.6 0.3 0.115385
1874 6 0.65 0.35 0.115385
1875 6 0.7 0.3 0.115385
1876 6 0.75 0.35 0.115385
1514 6 0.85 0.25 0.0769231
1516 6 0.8 0.25 0.0961538
1518 6 0.95 0.25 0.0769231
1520 6 0.9 0.25 0.0961538
1553 6 0.8 0.3 0.0769231
1554 6 0.85 0.35 0.0769231
1555 6 0.85 0.3 0.0961538
1556 6 0.8 0.35 0.0961538
1557 6 0.9 0.3 0.0769231
1558 6 0.95 0.35 0.0769231
1559 6 0.95 0.3 0.0961538
1560 6 0.9 0.35 0.0961538
1858 6 0.85 0.25 0.115385
1860 6 0.95 0.25 0.115385
1877 6 0.8 0.3 0.115385
1878 6 0.85 0.35 0.115385
1879 6 0.9 0.3 0.115385
1880 6 0.95 0.35 0.115385
1561 6 0 0.4 0.0769231
1562 6 0.05 0.45 0.0769231
1563 6 0.05 0.4 0.0961538
1564 6 0 0.45 0.0961538
1565 6 0.1 0.4 0.0769231
1566 6 0.15 0.45 0.0769231
1567 6 0.15 0.4 0.0961538
1568 6 0.1 0.45 0.0961538
1569 6 0.2 0.4 0.0769231
1572 6 0.2 0.45 0.0961538
1601 6 0 0.5 0.0769231
1602 6 0.05 0.55 0.0769231
1603 6 0.05 0.5 0.0961538
1604 6 0 0.55 0.0961538
1605 6 0.1 0.5 0.0769231
1606 6 0.15 0.55 0.0769231
1607 6 0.15 0.5 0.0961538
1608 6 0.1 0.55 0.0961538
1609 6 0.2 0.5 0.0769231
1612 6 0.2 0.55 0.0961538
1881 6 0 0.4 0.115385
1882 6 0.05 0.45 0.115385
1883 6 0.1 0.4 0.115385
1884 6 0.15 0.45 0.115385
1885 6 0.2 0.4 0.115385
1901 6 0 0.5 0.115385
1902 6 0.05 0.55 0.115385
1903 6 0.1 0.5 0.115385
1904 6 0.15 0.55 0.115385
1905 6 0.2 0.5 0.115385
1570 6 0.25 0.45 0.0769231
1571 6 0.25 0.4 0.0961538
1573 6 0.3 0.4 0.0769231
1574 6 0.35 0.45 0.0769231
1575 6 0.35 0.4 0.0961538
1576 6 0.3 0.45 0.0961538
1610 6 0.25 0.55 0.0769231
1611 6 0.25 0.5 0.0961538
1613 6 0.3 0.5 0.0769231
1614 6 0.35 0.55 0.0769231
1615 6 0.35 0.5 0.0961538
1616 6 0.3 0.55 0.0961538
1886 6 0.25 0.45 0.115385
1887 6 0.3 0.4 0.115385
1888 6 0.35 0.45 0.115385
1906 6 0.25 0.55 0.115385
1907 6 0.3 0.5 0.115385
1908 6 0.35 0.55 0.115385
1577 6 0.4 0.4 0.0769231
1578 6 0.45 0.45 0.0769231
1579 6 0.45 0.4 0.0961538
1580 6 0.4 0.45 0.0961538
1581 6 0.5 0.4 0.0769231
1582 6 0.55 0.45 0.0769231
1583 6 0.55 0.4 0.0961538
1584 6 0.5 0.45 0.0961538
1617 6 0.4 0.5 0.0769231
1618 6 0.45 0.55 0.0769231
1619 6 0.45 0.5 0.0961538
1620 6 0.4 0.55 0.0961538
1621 6 0.5 0.5 0.0769231
1622 6 0.55 0.55 0.0769231
1623 6 0.55 0.5 0.0961538
1624 6 0.5 0.55 0.0961538
1889 6 0.4 0.4 0.115385
1890 6 0.45 0.45 0.115385
1891 6 0.5 0.4 0.115385
1892 6 0.55 0.45 0.115385
1909 6 0.4 0.5 0.115385
1910 6 0.45 0.55 0.115385
1911 6 0.5 0.5 0.115385
1912 6 0.55 0.55 0.115385
1585 6 0.6 0.4 0.0769231
1586 6 0.65 0.45 0.0769231
1587 6 0.65 0.4 0.0961538
1588 6 0.6 0.45 0.0961538
1589 6 0.7 0.4 0.0769231
1590 6 0.75 0.45 0.0769231
1591 6 0.75 0.4 0.0961538
1592 6 0.7 0.45 0.0961538
1625 6 0.6 0.5 0.0769231
1626 6 0.65 0.55 0.0769231
1627 6 0.65 0.5 0.0961538
1628 6 0.6 0.55 0.0961538
1629 6 0.7 0.5 0.0769231
1630 6 0.75 0.55 0.0769231
1631 6 0.75 0.5 0.0961538
1632 6 0.7 0.55 0.0961538
1893 6 0.6 0.4 0.115385
1894 6 0.65 0.45 0.115385
1895 6 0.7 0.4 0.115385
1896 6 0.75 0.45 0.115385
1913 6 0.6 0.5 0.115385
1914 6 0.65 0.55 0.115385
1915 6 0.7 0.5 0.115385
1916 6 0.75 0.55 0.115385
1593 6 0.8 0.4 0.0769231
1594 6 0.85 0.45 0.0769231
1595 6 0.85 0.4 0.0961538
1596 6 0.8 0.45 0.0961538
1597 6 0.9 0.4 0.0769231
1598 6 0.95 0.45 0.0769231
1599 6 0.95 0.4 0.0961538
1600 6 0.9 0.45 0.0961538
1633 6 0.8 0.5 0.0769231
1634 6 0.85 0.55 0.0769231
1635 6 0.85 0.5 0.0961538
1636 6 0.8 0.55 0.0961538
1637 6 0.9 0.5 0.0769231
1638 6 0.95 0.55 0.0769231
1639 6 0.95 0.5 0.0961538
1640 6 0.9 0.55 0.0961538
1897 6 0.8 0.4 0.115385
1898 6 0.85 0.45 0.115385
1899 6 0.9 0.4 0.115385
1900 6 0.95 0.45 0.115385
1917 6 0.8 0.5 0.115385
1918 6 0.85 0.55 0.115385
1919 6 0.9 0.5 0.115385
1920 6 0.95 0.55 0.115385
1641 6 0 0.6 0.0769231
1642 6 0.05 0.65 0.0769231
1643 6 0.05 0.6 0.0961538
1644 6 0 0.65 0.0961538
1645 6 0.1 0.6 0.0769231
1646 6 0.15 0.65 0.0769231
1647 6 0.15 0.6 0.0961538
1648 6 0.1 0.65 0.0961538
1649 6 0.2 0.6 0.0769231
1652 6 0.2 0.65 0.0961538
1681 6 0 0.7 0.0769231
1682 6 0.05 0.75 0.0769231
1683 6 0.05 0.7 0.0961538
1684 6 0 0.75 0.0961538
1685 6 0.1 0.7 0.0769231
1686 6 0.15 0.75 0.0769231
1687 6 0.15 0.7 0.0961538
1688 6 0.1 0.75 0.0961538
1689 6 0.2 0.7 0.0769231
1692 6 0.2 0.75 0.0961538
1921 6 0 0.6 0.115385
1922 6 0.05 0.65 0.115385
1923 6 0.1 0.6 0.115385
1924 6 0.15 0.65 0.115385
1925 6 0.2 0.6 0.115385
1941 6 0 0.7 0.115385
1942 6 0.05 0.75 0.115385
1943 6 0.1 0.7 0.115385
1944 6 0.15 0.75 0.115385
1945 6 0.2 0.7 0.115385
1650 6 0.25 0.65 0.0769231
1651 6 0.25 0.6 0.0961538
1653 6 0.3 0.6 0.0769231
1654 6 0.35 0.65 0.0769231
1655 6 0.35 0.6 0.0961538
1656 6 0.3 0.65 0.0961538
1690 6 0.25 0.75 0.0769231
1691 6 0.25 0.7 0.0961538
1693 6 0.3 0.7 0.0769231
1694 6 0.35 0.75 0.0769231
1695 6 0.35 0.7 0.0961538
1696 6 0.3 0.75 0.0961538
1926 6 0.25 0.65 0.115385
1927 6 0.3 0.6 0.115385
1928 6 0.35 0.65 0.115385
1946 6 0.25 0.75 0.115385
1947 6 0.3 0.7 0.115385
1948 6 0.35 0.75 0.115385
1657 6 0.4 0.6 0.0769231
1658 6 0.45 0.65 0.0769231
1659 6 0.45 0.6 0.0961538
1660 6 0.4 0.65 0.0961538
1661 6 0.5 0.6 0.0769231
1662 6 0.55 0.65 0.0769231
1663 6 0.55 0.6 0.0961538
1664 6 0.5 0.65 0.0961538
1697 6 0.4 0.7 0.0769231
1698 6 0.45 0.75 0.0769231
1699 6 0.45 0.7 0.0961538
1700 6 0.4 0.75 0.0961538
1701 6 0.5 0.7 0.0769231
1702 6 0.55 0.75 0.0769231
1703 6 0.55 0.7 0.0961538
1704 6 0.5 0.75 0.0961538
1929 6 0.4 0.6 0.115385
1930 6 0.45 0.65 0.115385
1931 6 0.5 0.6 0.115385
1932 6 0.55 0.65 0.115385
1949 6 0.4 0.7 0.115385
1950 6 0.45 0.75 0.115385
1951 6 0.5 0.7 0.115385
1952 6 0.55 0.75 0.115385
1665 6 0.6 0.6 0.0769231
1666 6 0.65 0.65 0.0769231
1667 6 0.65 0.6 0.0961538
1668 6 0.6 0.65 0.0961538
1669 6 0.7 0.6 0.0769231
1670 6 0.75 0.65 0.0769231
1671 6 0.75 0.6 0.0961538
1672 6 0.7 0.65 0.0961538
1705 6 0.6 0.7 0.0769231
1706 6 0.65 0.75 0.0769231
1707 6 0.65 0.7 0.0961538
1708 6 0.6 0.75 0.0961538
1709 6 0.7 0.7 0.0769231
1710 6 0.75 0.75 0.0769231
1711 6 0.75 0.7 0.0961538
1712 6 0.7 0.75 0.0961538
1933 6 0.6 0.6 0.115385
1934 6 0.65 0.65 0.115385
1935 6 0.7 0.6 0.115385
1936 6 0.75 0.65 0.115385
1953 6 0.6 0.7 0.115385
1954 6 0.65 0.75 0.115385
1955 6 0.7 0.7 0.115385
1956 6 0.75 0.75 0.115385
1673 6 0.8 0.6 0.0769231
1674 6 0.85 0.65 0.0769231
1675 6 0.85 0.6 0.0961538
1676 6 0.8 0.65 0.0961538
1677 6 0.9 0.6 0.0769231
1678 6 0.95 0.65 0.0769231
1679 6 0.95 0.6 0.0961538
1680 6 0.9 0.65 0.0961538
1713 6 0.8 0.7 0.0769231
1714 6 0.85 0.75 0.0769231
1715 6 0.85 0.7 0.0961538
1716 6 0.8 0.75 0.0961538
1717 6 0.9 0.7 0.0769231
1718 6 0.95 0.75 0.0769231
1719 6 0.95 0.7 0.0961538
1720 6 0.9 0.75 0.0961538
1937 6 0.8 0.6 0.115385
1938 6 0.85 0.65 0.115385
1939 6 0.9 0.6 0.115385
1940 6 0.95 0.65 0.115385
1957 6 0.8 0.7 0.115385
1958 6 0.85 0.75 0.115385
1959 6 0.9 0.7 0.115385
1960 6 0.95 0.75 0.115385
1721 6 0 0.8 0.0769231
1722 6 0.05 0.85 0.0769231
1723 6 0.05 0.8 0.0961538
1724 6 0 0.85 0.0961538
1725 6 0.1 0.8 0.0769231
1726 6 0.15 0.85 0.0769231
1727 6 0.15 0.8 0.0961538
1728 6 0.1 0.85 0.0961538
1729 6 0.2 0.8 0.0769231
1732 6 0.2 0.85 0.0961538
1761 6 0 0.9 0.0769231
1762 6 0.05 0.95 0.0769231
1763 6 0.05 0.9 0.0961538
1764 6 0 0.95 0.0961538
1765 6 0.1 0.9 0.0769231
1766 6 0.15 0.95 0.0769231
1767 6 0.15 0.9 0.0961538
1768 6 0.1 0.95 0.0961538
1769 6 0.2 0.9 0.0769231
1772 6 0.2 0.95 0.0961538
1961 6 0 0.8 0.115385
1962 6 0.05 0.85 0.115385
1963 6 0.1 0.8 0.115385
1964 6 0.15 0.85 0.115385
1965 6 0.2 0.8 0.115385
1981 6 0 0.9 0.115385
1982 6 0.05 0.95 0.115385
1983 6 0.1 0.9 0.115385
1984 6 0.15 0.95 0.115385
1985 6 0.2 0.9 0.115385
1730 6 0.25 0.85 0.0769231
1731 6 0.25 0.8 0.0961538
1733 6 0.3 0.8 0.0769231
1734 6 0.35 0.85 0.0769231
1735 6 0.35 0.8 0.0961538
1736 6 0.3 0.85 0.0961538
1770 6 0.25 0.95 0.0769231
1771 6 0.25 0.9 0.0961538
1773 6 0.3 0.9 0.0769231
1774 6 0.35 0.95 0.0769231
1775 6 0.35 0.9 0.0961538
1776 6 0.3 0.95 0.0961538
1966 6 0.25 0.85 0.115385
1967 6 0.3 0.8 0.115385
1968 6 0.35 0.85 0.115385
1986 6 0.25 0.95 0.115385
1987 6 0.3 0.9 0.115385
1988 6 0.35 0.95 0.115385
1737 6 0.4 0.8 0.0769231
1738 6 0.45 0.85 0.0769231
1739 6 0.45 0.8 0.0961538
1740 6 0.4 0.85 0.0961538
1741 6 0.5 0.8 0.0769231
1742 6 0.55 0.85 0.0769231
1743 6 0.55 0.8 0.0961538
1744 6 0.5 0.85 0.0961538
1777 6 0.4 0.9 0.0769231
1778 6 0.45 0.95 0.0769231
1779 6 0.45 0.9 0.0961538
1780 6 0.4 0.95 0.0961538
1781 6 0.5 0.9 0.0769231
1782 6 0.55 0.95 0.0769231
1783 6 0.55 0.9 0.0961538
1784 6 0.5 0.95 0.0961538
1969 6 0.4 0.8 0.115385
1970 6 0.45 0.85 0.115385
1971 6 0.5 0.8 0.115385
1972 6 0.55 0.85 0.115385
1989 6 0.4 0.9 0.115385
1990 6 0.45 0.95 0.115385
1991 6 0.5 0.9 0.115385
1992 6 0.55 0.95 0.115385
1745 6 0.6 0.8 0.0769231
1746 6 0.65 0.85 0.0769231
1747 6 0.65 0.8 0.0961538
1748 6 0.6 0.85 0.0961538
1749 6 0.7 0.8 0.0769231
1750 6 0.75 0.85 0.0769231
1751 6 0.75 0.8 0.0961538
1752 6 0.7 0.85 0.0961538
1785 6 0.6 0.9 0.0769231
1786 6 0.65 0.95 0.0769231
1787 6 0.65 0.9 0.0961538
1788 6 0.6 0.95 0.0961538
1789 6 0.7 0.9 0.0769231
1790 6 0.75 0.95 0.0769231
1791 6 0.75 0.9 0.0961538
1792 6 0.7 0.95 0.0961538
1973 6 0.6 0.8 0.115385
1974 6 0.65 0.85 0.115385
1975 6 0.7 0.8 0.115385
1976 6 0.75 0.85 0.115385
1993 6 0.6 0.9 0.115385
1994 6 0.65 0.95 0.115385
1995 6 0.7 0.9 0.115385
1996 6 0.75 0.95 0.115385
1753 6 0.8 0.8 0.0769231
1754 6 0.85 0.85 0.0769231
1755 6 0.85 0.8 0.0961538
1756 6 0.8 0.85 0.0961538
1757 6 0.9 0.8 0.0769231
1758 6 0.95 0.85 0.0769231
1759 6 0.95 0.8 0.0961538
1760 6 0.9 0.85 0.0961538
1793 6 0.8 0.9 0.0769231
1794 6 0.85 0.95 0.0769231
1795 6 0.85 0.9 0.0961538
1796 6 0.8 0.95 0.0961538
1797 6 0.9 0.9 0.0769231
1798 6 0.95 0.95 0.0769231
1799 6 0.95 0.9 0.0961538
1800 6 0.9 0.95 0.0961538
1977 6 0.8 0.8 0.115385
1978 6 0.85 0.85 0.115385
1979 6 0.9 0.8 0.115385
1980 6 0.95 0.85 0.115385
1997 6 0.8 0.9 0.115385
1998 6 0.85 0.95 0.115385
1999 6 0.9 0.9 0.115385
2000 6 0.95 0.95 0.115385
2001 1 0.00178515 0.00946801 0.154215
2005 2 0.118674 0.00241085 0.155598
2006 2 0.0828359 0.00710706 0.151734
2032 2 0.0162742 0.0898477 0.152803
2034 1 0.0993451 0.100332 0.157559
2035 2 0.0902173 0.115586 0.151517
2036 2 0.110438 0.0840824 0.152462
2037 1 0.198042 0.0905243 0.15371
2039 2 0.191595 0.106071 0.16014
2065 2 0.103503 0.188208 0.148091
2302 2 0.0158692 0.00339316 0.196377
2304 1 0.106475 0.00719222 0.192426
2306 2 0.0831322 0.00882239 0.190925
2309 2 0.194894 0.0186114 0.191662
2331 1 0.00209276 0.100944 0.18869
2332 2 0.0126144 0.0867958 0.194794
2334 1 0.103467 0.091398 0.191238
2335 2 0.0830759 0.101629 0.188737
2336 2 0.113457 0.106973 0.196948
2337 1 0.195258 0.0918315 0.193127
2339 2 0.187472 0.114134 0.193964
2366 2 0.0975221 0.186361 0.197512
2368 2 0.194113 0.195456 0.185428
2008 2 0.200364 0.0122493 0.148076
2012 2 0.299647 0.018049 0.156549
2014 2 0.386957 0.00570849 0.158899
2038 2 0.210363 0.103404 0.147689
2040 1 0.305038 0.108112 0.154461
2041 2 0.299161 0.0913332 0.160502
2042 2 0.295801 0.100554 0.146576
2043 1 0.395374 0.0950488 0.156506
2045 2 0.390227 0.116669 0.153315
2068 2 0.212083 0.18559 0.152057
2070 1 0.309478 0.199886 0.153087
2071 2 0.299073 0.199287 0.161283
2312 2 0.307906 0.0121598 0.187369
2314 2 0.389035 0.0157193 0.191224
2338 2 0.21727 0.0940346 0.189832
2340 1 0.292275 0.0950334 0.193487
2341 2 0.313149 0.0864031 0.190698
2342 2 0.294576 0.118564 0.192738
2343 1 0.392157 0.0955198 0.190966
2345 2 0.393246 0.116652 0.195091
2370 1 0.29705 0.19085 0.191866
2016 1 0.504193 0.00222449 0.1506
2018 2 0.483426 0.0100281 0.153832
2044 2 0.414399 0.0882822 0.151718
2046 1 0.491983 0.102518 0.151996
2047 2 0.493637 0.0888627 0.15943
2048 2 0.514379 0.108619 0.150113
2050 2 0.596897 0.0948384 0.160928
2051 2 0.59824 0.0968114 0.146528
2073 1 0.405519 0.199901 0.150787
2075 2 0.412442 0.19709 0.159446
2077 2 0.497734 0.181162 0.155349
2079 1 0.594614 0.192062 0.153342
2313 1 0.408393 0.00347356 0.193597
2316 1 0.494331 0.00325499 0.195055
2317 2 0.492851 0.00825786 0.186154
2319 1 0.594239 0.00777756 0.19221
2344 2 0.414597 0.0878283 0.190866
2346 1 0.491926 0.0987911 0.19431
2347 2 0.512378 0.0869309 0.195061
2348 2 0.495695 0.114278 0.187552
2349 1 0.593564 0.0928844 0.191807
2351 2 0.589517 0.114839 0.194893
2373 1 0.405938 0.194206 0.190388
2377 2 0.518038 0.193581 0.193441
2378 2 0.480858 0.197087 0.192071
2381 2 0.580908 0.197943 0.19329
2020 2 0.605859 0.0183767 0.153153
2023 2 0.710019 0.0112655 0.158525
2027 2 0.796853 0.0183818 0.155862
2049 1 0.604862 0.10835 0.154082
2052 1 0.69408 0.092338 0.15385
2053 2 0.717803 0.0923631 0.153846
2054 2 0.688116 0.115299 0.153843
2055 1 0.793735 0.0966388 0.151318
2056 2 0.792259 0.0950344 0.160404
2080 2 0.616574 0.193411 0.156754
2082 1 0.703133 0.19251 0.151817
2084 2 0.696067 0.192377 0.160527
2085 1 0.793824 0.192568 0.154077
2320 2 0.609305 0.00141706 0.19882
2322 1 0.694104 0.00633362 0.193979
2324 2 0.704315 0.00826406 0.185777
2350 2 0.616919 0.0922768 0.190223
2352 1 0.695618 0.0913817 0.192107